          60
 Ord_Energy   -215.048172
 O    3.37244129       6.21412182      -1.97145903
 H    3.77365732       5.32783937      -1.89843118
 H    3.96180439       6.73771954      -2.50735044
 O   0.715473115       5.19359732      -2.39164090
 H    1.52110076       5.72337103      -2.40215015
 H    1.03452408       4.28916740      -2.25195503
 O    2.78140044       1.40468299       1.47798157
 H    3.69640923       1.57519138       1.23111141
 H    2.31606627       2.24094701       1.31132603
 O  -0.857553184       1.28137565       3.18734050
 H    2.97803897E-02   1.42181528       3.56808352
 H   -1.35253572      0.773047209       3.82371712
 O    1.44720340       3.71066689      0.784390509
 H   0.601139843       3.81294346       1.23683536
 H    1.91991973       4.55029535      0.835011065
 O   0.515459120       5.75734949       3.61818314
 H   -9.50409025E-02   5.13657093       3.19611835
 H   0.579919159       6.51191330       3.02206111
 O  -0.706044674       6.52846098     -0.322904259
 H   -1.46759427       5.97142982     -0.129096016
 H  -0.222952947       6.08858633      -1.03482437
 O   0.735248089       7.75528336       1.58372259
 H   0.531590700       8.68596840       1.60108960
 H   0.171721876       7.35441017      0.895841002
 O    2.87864828       6.14552116      0.798255861
 H    2.22523785       6.79917145       1.07761335
 H    3.05625701       6.28331852     -0.140769795
 O    4.46426964       4.55556297       2.45111561
 H    3.90081120       4.43629360       3.22474790
 H    4.01438093       5.20964670       1.89819419
 O    1.66784394       1.72501779       4.02064848
 H    1.98583508       2.59351587       4.29573584
 H    2.18059921       1.49322033       3.23382449
 O    4.29056025       3.68795705      -1.64877403
 H    3.47142220       3.19412398      -1.79696751
 H    4.69194365       3.30768704     -0.858675539
 O    1.69572771       2.68763852      -1.75118566
 H    1.04820716       1.98761630      -1.88563323
 H    1.57725930       3.00405574     -0.839962065
 O    5.27841663       2.57130718      0.803181589
 H    6.18514395       2.34071922      0.986324131
 H    5.03859043       3.28075528       1.42772734
 O  -0.499186933      0.944757998      -1.78287745
 H  -0.693597376      0.138773397      -2.25340199
 H  -0.275656193      0.689303696     -0.869341731
 O  -0.970658064       3.88764191       2.17779613
 H   -1.67510891       4.06059361       1.54070640
 H   -1.07181752       2.98899269       2.51715970
 O   0.276873589      0.329392105      0.728885233
 H    1.20491374      0.525286615      0.915807545
 H  -0.206688523      0.569456220       1.52763426
 O    2.60214186       4.34273338       4.61017990
 H    2.79451346       4.66163969       5.48832464
 H    1.86327767       4.88149118       4.27493477
 O   -2.76794982       4.57433939      0.154920503
 H   -3.70465732       4.70993280       4.24996205E-02
 H   -2.44402671       4.15152979     -0.661073685
 O   -1.67629206       3.53241420      -2.07957792
 H  -0.965114415       4.11068392      -2.37850022
 H   -1.30879855       2.64111853      -2.01717448
