         60
 Ord_Energy   -215.029770
 O   -7.24958372      -18.4544621      -9.72763348
 H   -6.96442127      -19.3708668      -9.61961079
 H   -6.86182165      -18.1028442      -10.5388250
 O   -3.46996999      -17.7025337      -10.8397226
 H   -3.57572603      -18.5516167      -10.3831253
 H   -4.31676006      -17.4977455      -11.2500801
 O   -3.75448298      -19.9069195      -9.20172310
 H   -4.60584736      -20.3560314      -9.12795830
 H   -3.59608436      -19.4855251      -8.35091686
 O   -9.43202686      -17.3816147      -8.38868237
 H   -8.76347542      -17.7980156      -8.95124054
 H   -9.27633667      -16.4318390      -8.45051765
 O   -4.65944099      -13.6602755      -5.98993540
 H   -4.23861027      -12.9097385      -5.57946491
 H   -4.28932238      -14.4566717      -5.56827974
 O   -7.33301640      -16.8866444      -5.31952715
 H   -6.80848312      -16.9733601      -6.13174582
 H   -8.09329700      -17.4718304      -5.42591667
 O   -9.32073784      -18.6830139      -6.03184223
 H   -9.43021011      -18.2306862      -6.88893557
 H   -10.1828995      -18.9953766      -5.77277279
 O   -4.87040758      -19.5750999      -5.05937481
 H   -4.21194696      -19.1680775      -5.63444233
 H   -5.03788757      -18.9318790      -4.36042595
 O   -3.68551159      -15.9552288      -4.93218803
 H   -4.22936869      -16.3911934      -4.26324320
 H   -3.45555305      -16.6411190      -5.56907606
 O   -4.59075451      -14.7456512      -8.56721878
 H   -4.56554127      -14.2640676      -7.73055649
 H   -3.73135662      -15.1696234      -8.68958282
 O   -6.36790037      -21.0096684      -9.03714561
 H   -6.59333229      -21.9101162      -9.25230598
 H   -6.63421345      -20.8640709      -8.10970783
 O   -8.78038883      -14.5985308      -8.56443310
 H   -8.31244087      -14.4229612      -7.72938299
 H   -9.45008469      -13.9238214      -8.64636230
 O   -5.52851152      -17.3672447      -3.34124374
 H   -6.23682785      -17.1716366      -3.98043704
 H   -5.91872549      -17.3317528      -2.47233415
 O   -7.46601772      -14.2279987      -6.20866442
 H   -7.51317883      -15.0900373      -5.77313614
 H   -6.55441809      -13.9318838      -6.10598326
 O   -5.91611242      -17.0779076      -7.68225384
 H   -5.58755445      -16.2442722      -8.04271984
 H   -6.37810326      -17.5486736      -8.38750744
 O   -2.26414037      -16.2925682      -8.91889191
 H   -1.36165142      -16.0952396      -9.15241051
 H   -2.65417504      -16.7737217      -9.67407799
 O   -6.64172602      -14.8655424      -10.4323635
 H   -7.41963482      -14.7688293      -9.87008858
 H   -5.88004255      -14.6793947      -9.86556053
 O   -7.07551050      -20.4495964      -6.52060413
 H   -6.33893681      -20.1783409      -5.95354843
 H   -7.83041382      -19.8939571      -6.30166769
 O   -3.42976618      -17.9910698      -6.97493505
 H   -2.86920357      -17.4818478      -7.57450056
 H   -4.34470844      -17.7514687      -7.20137739
 O   -6.07326221      -17.0809116      -11.8565054
 H   -6.29374552      -16.2443466      -11.4064026
 H   -6.29019642      -16.9653664      -12.7774477
